                         Program Version 3.0.3 - RELEASE   -
|  1> !RKS RIJCOSX M062X cc-pVDZ PMODEL
|  2> % output
|  3> 	Print[P_hirshfeld] 1
|  4>  end
|  5> *xyz 0 1
|  6>  O  0.00000  0.00000  0.00000
|  7>  H  0.00000 -0.94570  0.00000
|  8>  C -1.33503  0.45942  0.00000
|  9>  H -1.35881  1.54961  0.00000
| 10>  H -1.86232  0.10342 -0.88556
| 11>  H -1.86232  0.10342  0.88556
| 12> *
| 13>
| 14>                          ****END OF INPUT****

CARTESIAN COORDINATES (ANGSTROEM)
---------------------------------
  O      0.000000    0.000000    0.000000
  H      0.000000   -0.945700    0.000000
  C     -1.335030    0.459420    0.000000
  H     -1.358810    1.549610    0.000000
  H     -1.862320    0.103420   -0.885560
  H     -1.862320    0.103420    0.885560

 Total Charge           Charge          ....    0
 Multiplicity           Mult            ....    1
 Number of Electrons    NEL             ....   18
 Basis Dimension        Dim             ....   48

ORBITAL ENERGIES
----------------

  NO   OCC          E(Eh)            E(eV)
   0   2.0000     -19.618268      -533.8402
   1   2.0000     -10.584703      -288.0244
   2   2.0000      -1.133147       -30.8345
   3   2.0000      -0.769419       -20.9369
   4   2.0000      -0.575513       -15.6605
   5   2.0000      -0.506864       -13.7925
   6   2.0000      -0.492605       -13.4045
   7   2.0000      -0.394235       -10.7277
   8   2.0000      -0.334280        -9.0962
   9   0.0000       0.099933         2.7193
  10   0.0000       0.142333         3.8731
  11   0.0000       0.183385         4.9902
  12   0.0000       0.186299         5.0694
  13   0.0000       0.245608         6.6833

MULLIKEN ATOMIC CHARGES
-----------------------
   0 O :   -0.309993
   1 H :    0.146561
   2 C :    0.075094
   3 H :    0.049558
   4 H :    0.019390
   5 H :    0.019390
Sum of atomic charges:   -0.0000000

LOEWDIN ATOMIC CHARGES
----------------------
   0 O :   -0.045726
   1 H :    0.034098
   2 C :   -0.033906
   3 H :    0.027950
   4 H :    0.008792
   5 H :    0.008792

  Mayer bond orders larger than 0.1
B(  0-O ,  1-H ) :   1.0145 B(  0-O ,  2-C ) :   1.0676 B(  2-C ,  3-H ) :   0.9828
B(  2-C ,  4-H ) :   0.9777 B(  2-C ,  5-H ) :   0.9777

FINAL SINGLE POINT ENERGY      -115.668586689033

DIPOLE MOMENT
-------------
                                X             Y             Z
Electronic contribution:      1.78046      -0.41188      -0.00000
Nuclear contribution   :     -2.28128       0.01572       0.00000
                        -----------------------------------------
Total Dipole Moment    :     -0.50082      -0.39616      -0.00000
                        -----------------------------------------
Magnitude (a.u.)       :      0.63856
Magnitude (Debye)      :      1.62310

                             ****ORCA TERMINATED NORMALLY****
TOTAL RUN TIME: 0 days 0 hours 0 minutes 12 seconds 487 msec
